============================== echo of input deck ==============================
echo
start w12_b3lyp_cc-pvtz_energy
memory stack 8000 mb heap 100 mb global 8000 mb noverify
permanent_dir .
scratch_dir /scratch/${USER}/${PBS_JOBID}
geometry units angstrom
  O       1.79799517    -2.87189360    -0.91374020
  O       0.96730604    -2.75911220     1.62798799
  O       1.65380168    -0.07006642    -1.01974524
  O       1.02235809     0.07175530     1.65572815
  O      -1.02223258     0.06714841    -1.65231025
  O      -1.65303657    -0.06953734     1.02328922
  O      -1.79714075    -2.87225082     0.91489225
  O      -0.96714604    -2.76268933    -1.62695366
  O      -0.91046484     2.86984708    -1.80205865
  O       1.62976535     2.75963881    -0.96492508
  O       0.90962365     2.87584732     1.79706100
  O      -1.63064745     2.76057720     0.96075175
  H       1.58187452    -2.90533857     0.05372043
  H       2.45880812    -3.55319457    -1.06640225
  H      -1.58013630    -2.90956053    -0.05228132
  H      -2.45728026    -3.55363054     1.07010099
  H       0.05632428     2.90394112    -1.58314254
  H      -1.06231290     3.55393270    -2.46019459
  H      -1.56680088     2.89107809    -0.00131897
  H      -1.92210192     1.83983329     1.06475175
  H       1.34757079     0.06744042     0.72858318
  H       1.14627218     0.98941003     1.95482520
  H      -1.14676057     0.98295160    -1.95675717
  H      -1.34650335     0.06810117    -0.72482129
  H       0.72810518    -0.06186014    -1.34872142
  H       1.95057642    -0.98833069    -1.14558354
  H      -0.72703573    -0.06575415     1.35156867
  H      -1.95270073    -0.98745311     1.14464678
  H       1.56681459     2.89291882    -0.00316599
  H       1.92433921     1.83983329    -1.06611724
  H      -0.00511757    -2.89477284    -1.56679971
  H      -1.07087869    -1.84139535    -1.91693517
  H      -0.05748186     2.90789148     1.57927484
  H       1.06103881     3.56065162     2.45452965
  H       0.00532585    -2.89179177     1.56768173
  H       1.07022772    -1.83898762     1.92167783
end
basis "ao basis" spherical noprint
  * library cc-pvtz
end

dft
  semidirect memsize 2000000000 filesize 0
  xc b3lyp
  grid fine
  iterations 100
  vectors input atomic
  noprint "final vectors analysis" "final vector symmetries"
end
task dft energy
================================================================================

 Output coordinates in angstroms (scale by  1.889725989 to convert to a.u.)

  No.       Tag          Charge          X              Y              Z
 ---- ---------------- ---------- -------------- -------------- --------------
    1 O                    8.0000     1.72088875    -2.87151749    -1.05275191
    2 O                    8.0000     1.09245301    -2.75932407     1.54640708
    3 O                    8.0000     1.56854828    -0.06968553    -1.14653045
    4 O                    8.0000     1.14924741     0.07154399     1.57031207
    5 O                    8.0000    -1.14892563     0.06735857    -1.56686396
    6 O                    8.0000    -1.56755270    -0.06991933     1.14999735
    7 O                    8.0000    -1.71946358    -2.87262741     1.05268716
    8 O                    8.0000    -1.09175034    -2.76247800    -1.54648939
    9 O                    8.0000    -1.04953296     2.87009872    -1.72436059
   10 O                    8.0000     1.54862648     2.76000628    -1.08941565
   11 O                    8.0000     1.04770116     2.87559593     1.72063567
   12 O                    8.0000    -1.55041304     2.76020982     1.08646986
   13 H                    1.0000     1.58144990    -2.90517526    -0.07130872
   14 H                    1.0000     2.36772904    -3.55271593    -1.25699879
   15 H                    1.0000    -1.57911444    -2.90972428     0.07144631
   16 H                    1.0000    -2.36530393    -3.55411005     1.25914275
   17 H                    1.0000    -0.06853597     2.90425632    -1.58207206
   18 H                    1.0000    -1.25268397     3.55429621    -2.36839268
   19 H                    1.0000    -1.56236325     2.89090570     0.12238339
   20 H                    1.0000    -1.83270877     1.83941355     1.21285980
   21 H                    1.0000     1.40061214     0.06744603     0.62048119
   22 H                    1.0000     1.29619112     0.98915389     1.85893566
   23 H                    1.0000    -1.29707455     0.98320752    -1.86039968
   24 H                    1.0000    -1.39932399     0.06809444    -0.61676484
   25 H                    1.0000     0.61986579    -0.06151678    -1.40175876
   26 H                    1.0000     1.85460547    -0.98789255    -1.29548328
   27 H                    1.0000    -0.61862268    -0.06609844     1.40450961
   28 H                    1.0000    -1.85666928    -0.98789175     1.29433678
   29 H                    1.0000     1.56142037     2.89309145    -0.12565658
   30 H                    1.0000     1.83442612     1.84025295    -1.21362593
   31 H                    1.0000    -0.12795709    -2.89446745    -1.56213203
   32 H                    1.0000    -1.21803221    -1.84113879    -1.82723713
   33 H                    1.0000     0.06647129     2.90757627     1.57951191
   34 H                    1.0000     1.25023910     3.56028840     2.36431502
   35 H                    1.0000     0.12872090    -2.89209766     1.56184022
   36 H                    1.0000     1.21804414    -1.83924558     1.83128998

         Total DFT energy =     -917.738248256267

     Multipole analysis of the density
     ---------------------------------

     L   x y z        total         alpha         beta         nuclear
     -   - - -        -----         -----         ----         -------
     0   0 0 0     -0.000000    -60.000000    -60.000000    120.000000

     1   1 0 0      0.000722      0.000361      0.000361      0.000000
     1   0 1 0      0.002021      0.001010      0.001010      0.000000
     1   0 0 1     -0.000859     -0.000430     -0.000430     -0.000000

     2   2 0 0    -58.379817   -443.040144   -443.040144    827.700471
     2   1 1 0      0.002370     -0.002963     -0.002963      0.008296
     2   1 0 1     -0.016403      0.002465      0.002465     -0.021332
     2   0 2 0    -49.627757  -1173.490174  -1173.490174   2297.352592
     2   0 1 1     -0.025183      0.005325      0.005325     -0.035834

 Total times  cpu:      270.6s     wall:       74.9s
